$newPassword = ConvertTo-SecureString -AsPlainText "Password" -Force
# Password change to the new password specified.
Import-Csv "C:\Directoryhere" | ForEach-Object {
#Import from .csv file
$samAccountName = $_."samAccountName"
#Un-comment the below line if your CSV file includes password for all users
#$newPassword = ConvertTo-SecureString -AsPlainText $_."Password"  -Force

Set-ADAccountPassword -Identity $samAccountName -NewPassword $newPassword -Reset
# Calls on the new password listed above.
Set-AdUser -Identity $samAccountName -ChangePasswordAtLogon $true
# Forces user to change password at next login.
Write-Host " AD Password has been reset for: "$samAccountName
# Writes to PS window stating the changes took affect.
