# Script to bulk reset AD accounts from a .csv file and the password is specified, this is good if you want them to set their own on next login

function Get-ADPasswordResetBulk

{
$newPassword = ConvertTo-SecureString -AsPlainText "Password" -Force
# Password change to the new password specified. "Password" is where you need to put whichever password you want them all set to

$csvDir = Read-Host -Prompt "Please enter the directory where the .csv file is"
# User prompt to specify directory for the .csv file that has the list of users with a password reset needed. You NEED to pass the full directory and include file name or you will get Access is not enabled.
Import-Csv "$csvDir" | ForEach-Object {
# Import from .csv file

$samAccountName = $_."samAccountName"

Write-Warning "Confirm the information is correct before proceeding, this is a bulk password reset" -WarningAction Inquire
# Confirmation on the change, Y/N to confirm, so no mistakes or accidents happen.

# Un-comment the below line if your CSV file includes password for all users
# $newPassword = ConvertTo-SecureString -AsPlainText $_."Password"  -Force <--- This line mentioned ^^ above

Set-ADAccountPassword -Identity $samAccountName -NewPassword $newPassword -Reset
# Calls on the new password listed above.

Set-AdUser -Identity $samAccountName -ChangePasswordAtLogon $true
# Forces user to change password at next login.

Write-Host " AD Password has been reset for: "$samAccountName
# Writes to PS window stating the changes took affect.

            }
        }
