function Get-ADPasswordReset

{


$samAccountName = Read-Host -Prompt "Enter AD Account Name for Password Reset Here"

$title    = 'something'
$question = 'Are you sure you want to proceed with the password reset? Double check the name'
$choices  = '&Yes', '&No'

$decision = $Host.UI.PromptForChoice($title, $question, $choices, 1)
if ($decision -eq 0) {
    Write-Host 'Confirmed'
} else {
    Write-Host 'Cancelled'
}

# Forced to input AD account name that needs a reset

$newPassword = ConvertTo-SecureString -AsPlainText "Password" -Force

# Password change to the new password specified

Set-ADAccountPassword -Identity $samAccountName -NewPassword $newPassword -Reset

# Calls on the new password listed above

Set-AdUser -Identity $samAccountName -ChangePasswordAtLogon $true

# Forces user to change password at next login

Write-Host " AD Password has been reset for: "$samAccountName

# Writes to PS window stating the changes took affect

}
