function Get-ADPasswordReset

{


$samAccountName = Read-Host -Prompt "Enter AD Account Name for Password Reset Here"

#Warning confirmation on the change, Y/N to confirm
 
Write-Warning "Confirm the information is correct before proceeding, this is a single password reset" -WarningAction Inquire

# Forced to input AD account name that needs a reset

$newPassword = ConvertTo-SecureString -AsPlainText "Password" -Force

# Password change to the new password specified

Set-ADAccountPassword -Identity $samAccountName -NewPassword $newPassword -Reset

# Calls on the new password listed above

Set-AdUser -Identity $samAccountName -ChangePasswordAtLogon $true

# Forces user to change password at next login

Write-Host " AD Password has been reset for: "$samAccountName

# Writes to PS window stating the changes took affect

Set-Clipboard "Reset to Password"

# Copy text to clipboard to put in a ticket or something else

}
