function Get-ADPasswordResetBulk

{

# Password change to the new password specified.

$newPassword = ConvertTo-SecureString -AsPlainText "Password" -Force

# User prompt to specify directory for the .csv file that has the list of users with a password reset needed. You NEED to pass the full directory and include file name or you will get Access is not enabled.

$csvDir = Read-Host -Prompt "Please enter the directory where the .csv file is"

Import-Csv "$csvDir" | ForEach-Object {

# Import from .csv file

$samAccountName = $_."samAccountName"

# Confirmation on the change, Y/N to confirm, so no mistakes or accidents happen.

# Warning confirmation on the change, Y/N to confirm

Write-Warning "Confirm the information is correct before proceeding, this is a bulk password reset" -WarningAction Inquire

# Un-comment the below line if your CSV file includes password for all users

# $newPassword = ConvertTo-SecureString -AsPlainText $_."Password"  -Force <--- This line mentioned ^^ above

Set-ADAccountPassword -Identity $samAccountName -NewPassword $newPassword -Reset

# Calls on the new password listed above.

Set-AdUser -Identity $samAccountName -ChangePasswordAtLogon $true

# Forces user to change password at next login.

Write-Host " AD Password has been reset for: "$samAccountName

# Writes to PS window stating the changes took affect.

            }
        }
